 Gaussian 09, Revision D.01,
 Gaussian 09:  ES64L-G09RevD.01 24-Apr-2013

 --------------------------------------
 #p wb97xd 6-31G* nosymm td=(nstates=2)
 --------------------------------------

 -----
 Title
 -----
 Symbolic Z-matrix:
 Charge =  0 Multiplicity = 1

                          Input orientation:
 ---------------------------------------------------------------------
 Center     Atomic      Atomic             Coordinates (Angstroms)
 Number     Number       Type             X           Y           Z
 ---------------------------------------------------------------------
      1          6           0       -2.561045    2.954113    1.800653
      2          6           0       -1.453614    2.123705    2.119220
      3          6           0       -2.395118    3.884027    0.746328
      4          7           0       -3.735091    2.854836    2.478577
      5          6           0       -0.257335    2.254822    1.452784
      6          1           0       -1.535511    1.379261    2.899570
      7          6           0       -1.189555    3.988311    0.088085
      8          1           0       -3.219319    4.514257    0.441933
      9          6           0       -3.874215    1.876051    3.538120
     10          6           0       -4.839077    3.744247    2.165869
     11          6           0       -0.079646    3.191747    0.417146
     12          1           0        0.565679    1.610013    1.746085
     13          1           0       -1.090979    4.710509   -0.716946
     14          1           0       -3.760779    0.853886    3.155524
     15          1           0       -4.862027    1.966878    3.986117
     16          1           0       -3.134539    2.036154    4.330126
     17          1           0       -4.544216    4.794091    2.272894
     18          1           0       -5.657968    3.554154    2.859682
     19          1           0       -5.212008    3.588295    1.147805
     20          6           0        1.142009    3.334818   -0.334298
     21          6           0        2.304719    2.659570   -0.162136
     22          1           0        1.119006    4.060213   -1.147889
     23          6           0        3.424995    2.888199   -1.059609
     24          1           0        2.407243    1.928444    0.629659
     25          6           0        4.730578    2.228227   -0.807332
     26          8           0        3.297663    3.635176   -2.057585
     27          6           0        5.784111    2.394560   -1.739495
     28          6           0        4.979595    1.442845    0.332629
     29          1           0        4.727780    3.522407   -2.786250
     30          6           0        7.025290    1.784468   -1.519498
     31          8           0        5.638602    3.129431   -2.853437
     32          6           0        6.204812    0.838836    0.543916
     33          1           0        4.203990    1.302276    1.074422
     34          6           0        7.231178    1.015415   -0.388505
     35          1           0        7.813944    1.955377   -2.243553
     36          1           0        6.367472    0.249632    1.437610
     37          1           0        8.201859    0.560885   -0.214210
     38          6           0        2.581379   -2.105893   -1.790351
     39          6           0        1.469589   -2.925706   -2.114778
     40          6           0        2.418297   -1.172891   -0.739484
     41          7           0        3.760702   -2.220740   -2.463536
     42          6           0        0.275622   -2.797215   -1.441929
     43          1           0        1.543808   -3.659152   -2.906877
     44          6           0        1.213161   -1.068453   -0.076918
     45          1           0        3.239008   -0.532688   -0.440757
     46          6           0        3.889903   -3.191034   -3.531233
     47          6           0        4.884294   -1.370986   -2.116734
     48          6           0        0.103869   -1.867639   -0.400177
     49          1           0       -0.550023   -3.437858   -1.738482
     50          1           0        1.114370   -0.338494    0.721184
     51          1           0        3.768271   -4.218275   -3.164267
     52          1           0        4.878499   -3.104711   -3.978679
     53          1           0        3.151480   -3.019964   -4.322237
     54          1           0        4.641213   -0.309097   -2.246088
     55          1           0        5.725497   -1.605799   -2.769569
     56          1           0        5.206196   -1.527935   -1.081389
     57          6           0       -1.117404   -1.732539    0.361203
     58          6           0       -2.276353   -2.409923    0.182500
     59          1           0       -1.091198   -1.015275    1.182031
     60          6           0       -3.398076   -2.213310    1.090916
     61          1           0       -2.379263   -3.124101   -0.624627
     62          6           0       -4.700390   -2.871687    0.825503
     63          8           0       -3.265917   -1.494962    2.108429
     64          6           0       -5.765720   -2.700323    1.744545
     65          6           0       -4.941727   -3.655942   -0.318788
     66          1           0       -4.711652   -1.603647    2.830030
     67          6           0       -7.013689   -3.286127    1.498915
     68          8           0       -5.627792   -1.982401    2.870442
     69          6           0       -6.169035   -4.248695   -0.546866
     70          1           0       -4.157788   -3.806279   -1.050026
     71          6           0       -7.211084   -4.051961    0.365389
     72          1           0       -7.815385   -3.104576    2.205589
     73          1           0       -6.322494   -4.844558   -1.438454
     74          1           0       -8.188118   -4.487504    0.178763
 ---------------------------------------------------------------------

 SCF Done:  E(RwB97XD) =  -1725.92142637     A.U. after   17 cycles

 Excitation energies and oscillator strengths:

 Excited state symmetry could not be determined.
 Excited State   1:      Singlet-?Sym    3.4194 eV  362.59 nm  f=0.0172  <S**2>=0.000
     141 ->143        -0.35000
     141 ->144        -0.29416
     142 ->143         0.35566
     142 ->144        -0.31107
 This state for optimization and/or second-order correction.
 Total Energy, E(TD-HF/TD-KS) =  -1725.79576407
 Copying the excited state density for this state as the 1-particle RhoCI density.

 Excited state symmetry could not be determined.
 Excited State   2:      Singlet-?Sym    3.6290 eV  341.65 nm  f=2.1417  <S**2>=0.000
     139 ->143         0.10099
     140 ->144        -0.12332
     141 ->143        -0.44446
     142 ->144         0.46749

 Alpha  occ. eigenvalues --  -19.27799 -19.27725 -19.25824 -19.25707 -14.48214
 Alpha  occ. eigenvalues --  -14.48113 -10.39101 -10.39094 -10.37045 -10.36655
 Alpha  occ. eigenvalues --  -10.35173 -10.35097 -10.33512 -10.33505 -10.32726
 Alpha  occ. eigenvalues --  -10.32678 -10.32098 -10.32033 -10.31678 -10.31578
 Alpha  occ. eigenvalues --  -10.31154 -10.31131 -10.30989 -10.30958 -10.30837
 Alpha  occ. eigenvalues --  -10.30781 -10.30761 -10.30703 -10.30214 -10.30160
 Alpha  occ. eigenvalues --  -10.30133 -10.30025 -10.29909 -10.29874 -10.29723
 Alpha  occ. eigenvalues --  -10.29605 -10.29602 -10.29564 -10.29508 -10.29430
 Alpha  occ. eigenvalues --   -1.15841  -1.15781  -1.12282  -1.12200  -1.06314
 Alpha  occ. eigenvalues --   -1.06194  -0.96073  -0.95803  -0.95748  -0.95424
 Alpha  occ. eigenvalues --   -0.89944  -0.89808  -0.87005  -0.86589  -0.85681
 Alpha  occ. eigenvalues --   -0.85572  -0.84310  -0.83947  -0.83752  -0.83469
 Alpha  occ. eigenvalues --   -0.82662  -0.82532  -0.77948  -0.77778  -0.74284
 Alpha  occ. eigenvalues --   -0.73994  -0.71593  -0.71291  -0.70556  -0.70307
 Alpha  occ. eigenvalues --   -0.69433  -0.69083  -0.67001  -0.66905  -0.63908
 Alpha  occ. eigenvalues --   -0.63736  -0.62262  -0.62004  -0.60890  -0.60684
 Alpha  occ. eigenvalues --   -0.60401  -0.60054  -0.57623  -0.57567  -0.57172
 Alpha  occ. eigenvalues --   -0.56889  -0.56155  -0.56047  -0.55378  -0.55078
 Alpha  occ. eigenvalues --   -0.54602  -0.54017  -0.53601  -0.53392  -0.52173
 Alpha  occ. eigenvalues --   -0.52070  -0.51743  -0.51650  -0.51357  -0.51299
 Alpha  occ. eigenvalues --   -0.51082  -0.50878  -0.50206  -0.50189  -0.49728
 Alpha  occ. eigenvalues --   -0.49683  -0.48700  -0.48499  -0.47449  -0.47168
 Alpha  occ. eigenvalues --   -0.46988  -0.46899  -0.46805  -0.46578  -0.46241
 Alpha  occ. eigenvalues --   -0.46079  -0.46019  -0.45967  -0.45686  -0.45281
 Alpha  occ. eigenvalues --   -0.44632  -0.44450  -0.42541  -0.42233  -0.42118
 Alpha  occ. eigenvalues --   -0.41802  -0.41438  -0.41172  -0.39914  -0.39845
 Alpha  occ. eigenvalues --   -0.34153  -0.33947  -0.33685  -0.33638  -0.33489
 Alpha  occ. eigenvalues --   -0.33336  -0.33121  -0.33010  -0.29644  -0.29192
 Alpha  occ. eigenvalues --   -0.25617  -0.25547
 Alpha virt. eigenvalues --   -0.01280  -0.01101   0.04704   0.05255   0.06840
 Alpha virt. eigenvalues --    0.07267   0.07821   0.08532   0.11698   0.11998
 Alpha virt. eigenvalues --    0.13883   0.16194   0.16558   0.16954   0.17329

 Mulliken charges:
               1
     1  C    0.379827
     2  C   -0.225290
     3  C   -0.231632
     4  N   -0.496967
     5  C   -0.198575
     6  H    0.178314
     7  C   -0.214213
     8  H    0.164578
     9  C   -0.380701
    10  C   -0.362198
    11  C    0.125203
    12  H    0.158224
    13  H    0.172850
    14  H    0.212497
    15  H    0.181954
    16  H    0.177562
    17  H    0.181460
    18  H    0.184531
    19  H    0.184971
    20  C   -0.159354
    21  C   -0.236508
    22  H    0.199947
    23  C    0.437845
    24  H    0.148051
    25  C   -0.029700
    26  O   -0.587262
    27  C    0.322285
    28  C   -0.208446
    29  H    0.468928
    30  C   -0.210742
    31  O   -0.668133
    32  C   -0.192836
    33  H    0.175035
    34  C   -0.160306
    35  H    0.184747
    36  H    0.169422
    37  H    0.175055
    38  C    0.372440
    39  C   -0.228188
    40  C   -0.213025
    41  N   -0.500955
    42  C   -0.198687
    43  H    0.162566
    44  C   -0.197009
    45  H    0.157770
    46  C   -0.361247
    47  C   -0.358876
    48  C    0.119262
    49  H    0.162870
    50  H    0.147553
    51  H    0.178941
    52  H    0.183220
    53  H    0.182751
    54  H    0.191540
    55  H    0.177787
    56  H    0.180360
    57  C   -0.150886
    58  C   -0.245535
    59  H    0.190481
    60  C    0.436674
    61  H    0.160257
    62  C   -0.025196
    63  O   -0.597943
    64  C    0.320497
    65  C   -0.200986
    66  H    0.468766
    67  C   -0.207440
    68  O   -0.675068
    69  C   -0.187251
    70  H    0.171282
    71  C   -0.156863
    72  H    0.180630
    73  H    0.165890
    74  H    0.173196
 Sum of Mulliken charges =   0.00000

 Dipole moment (field-independent basis, Debye):
    X=             -0.2981    Y=             -2.2449    Z=             -0.0945  Tot=              2.2666
 Quadrupole moment (field-independent basis, Debye-Ang):
   XX=           -207.4012   YY=           -228.8520   ZZ=           -229.6839
   XY=            -31.3635   XZ=              5.8940   YZ=             27.6659

 Normal termination of Gaussian 09 at Tue Sep 26 18:20:28 2017.
