 Gaussian 09, Revision D.01,
 Gaussian 09:  ES64L-G09RevD.01 24-Apr-2013

 ------------------------------------------
 #p wb97xd 6-311++G** td=(nstates=4) nosymm
 ------------------------------------------

 -----
 Title
 -----
 Symbolic Z-matrix:
 Charge =  0 Multiplicity = 1

                          Input orientation:
 ---------------------------------------------------------------------
 Center     Atomic      Atomic             Coordinates (Angstroms)
 Number     Number       Type             X           Y           Z
 ---------------------------------------------------------------------
      1          6           0       -0.045604   -3.212643   -0.673042
      2          6           0       -1.163557   -4.037551   -0.999057
      3          1           0       -0.121291   -2.475288    0.121883
      4          6           0        1.146608   -3.335524   -1.348586
      5          6           0       -0.997931   -4.974953   -2.055672
      6          7           0       -2.337452   -3.933160   -0.324579
      7          6           0        1.320601   -4.270503   -2.399224
      8          1           0        1.971105   -2.682196   -1.060472
      9          6           0        0.202155   -5.074774   -2.725295
     10          1           0       -1.826104   -5.611893   -2.356233
     11          6           0       -3.451039   -4.817588   -0.638286
     12          6           0       -2.482782   -2.951131    0.738607
     13          6           0        2.521300   -4.396929   -3.164451
     14          1           0        0.299534   -5.792287   -3.541330
     15          1           0       -3.150286   -5.872565   -0.549647
     16          1           0       -4.268925   -4.626441    0.063239
     17          1           0       -3.818958   -4.648925   -1.662177
     18          1           0       -2.290162   -1.933406    0.365237
     19          1           0       -3.502453   -2.991283    1.132588
     20          1           0       -1.783201   -3.152381    1.563457
     21          6           0        3.704177   -3.730044   -2.976341
     22          1           0        2.478430   -5.091951   -4.010014
     23          6           0        4.824246   -3.904072   -3.862622
     24          1           0        3.810173   -3.042685   -2.139497
     25          6           0        6.116034   -3.241308   -3.594826
     26          8           0        4.726790   -4.644034   -4.908669
     27          6           0        7.196441   -3.444502   -4.505463
     28          6           0        6.353060   -2.418884   -2.472996
     29          1           0        6.047681   -4.528914   -5.530262
     30          6           0        8.449310   -2.862065   -4.256098
     31          8           0        7.039043   -4.198267   -5.611204
     32          6           0        7.588797   -1.834009   -2.241935
     33          1           0        5.552651   -2.221827   -1.761605
     34          6           0        8.641937   -2.065551   -3.137064
     35          1           0        9.257308   -3.069135   -4.957770
     36          1           0        7.737617   -1.196134   -1.371176
     37          1           0        9.619574   -1.619592   -2.947297
     38          6           0       -7.196442   -6.840499    4.505462
     39          6           0       -8.449309   -7.422935    4.256097
     40          6           0       -6.116034   -7.043692    3.594826
     41          8           0       -7.039043   -6.086733    5.611203
     42          6           0       -8.641938   -8.219449    3.137063
     43          1           0       -9.257309   -7.215866    4.957770
     44          6           0       -6.353060   -7.866116    2.472996
     45          6           0       -4.824246   -6.380928    3.862622
     46          1           0       -6.047680   -5.756085    5.530263
     47          6           0       -7.588796   -8.450990    2.241936
     48          1           0       -9.619575   -8.665408    2.947296
     49          1           0       -5.552651   -8.063173    1.761606
     50          6           0       -3.704178   -6.554956    2.976342
     51          8           0       -4.726790   -5.640966    4.908668
     52          1           0       -7.737618   -9.088866    1.371175
     53          6           0       -2.521300   -5.888071    3.164452
     54          1           0       -3.810174   -7.242315    2.139497
     55          6           0       -1.320601   -6.014497    2.399224
     56          1           0       -2.478430   -5.193048    4.010013
     57          6           0       -1.146607   -6.949476    1.348586
     58          6           0       -0.202155   -5.210226    2.725294
     59          1           0       -1.971105   -7.602804    1.060473
     60          6           0        0.045604   -7.072357    0.673042
     61          6           0        0.997930   -5.310047    2.055673
     62          1           0       -0.299533   -4.492713    3.541330
     63          6           0        1.163557   -6.247449    0.999056
     64          1           0        0.121292   -7.809712   -0.121883
     65          1           0        1.826104   -4.673106    2.356233
     66          7           0        2.337452   -6.351839    0.324578
     67          6           0        2.482783   -7.333867   -0.738608
     68          6           0        3.451039   -5.467412    0.638287
     69          1           0        2.290163   -8.351594   -0.365237
     70          1           0        3.502452   -7.293717   -1.132587
     71          1           0        1.783202   -7.132620   -1.563458
     72          1           0        3.150286   -4.412434    0.549647
     73          1           0        4.268925   -5.658559   -0.063239
     74          1           0        3.818959   -5.636076    1.662178
 ---------------------------------------------------------------------

 SCF Done:  E(RwB97XD) =  -1726.34862850     A.U. after   19 cycles

 Excitation energies and oscillator strengths:

 Excited state symmetry could not be determined.
 Excited State   1:      Singlet-?Sym    3.2205 eV  384.98 nm  f=0.0000  <S**2>=0.000
     141 -> 144       -0.36333
     142 -> 143        0.56550
 This state for optimization and/or second-order correction.
 Total Energy, E(TD-HF/TD-KS) =  -1726.23027718
 Copying the excited state density for this state as the 1-particle RhoCI density.

 Excited state symmetry could not be determined.
 Excited State   2:      Singlet-?Sym    3.2450 eV  382.08 nm  f=2.3580  <S**2>=0.000
     140 -> 144        0.11875
     141 -> 143       -0.44891
     142 -> 144        0.47854

 Excited state symmetry could not be determined.
 Excited State   3:      Singlet-?Sym    3.8101 eV  325.41 nm  f=0.0000  <S**2>=0.000
     134 -> 143        0.43085
     135 -> 144       -0.42486
     139 -> 144        0.15427
     140 -> 143        0.18201

 Excited state symmetry could not be determined.
 Excited State   4:      Singlet-?Sym    3.8187 eV  324.67 nm  f=0.0000  <S**2>=0.000
     134 -> 143       -0.19091
     135 -> 144        0.19223
     139 -> 144        0.35976
     139 -> 147        0.11219
     140 -> 143        0.41782
     140 -> 146        0.12657
     141 -> 144       -0.15475
     142 -> 143       -0.17418
     142 -> 146        0.10408

 Alpha  occ. eigenvalues --  -19.25010 -19.25010 -19.24200 -19.24200 -14.48123
 Alpha  occ. eigenvalues --  -14.48123 -10.39098 -10.39098 -10.36196 -10.36196
 Alpha  occ. eigenvalues --  -10.35964 -10.35964 -10.33636 -10.33636 -10.33326
 Alpha  occ. eigenvalues --  -10.33326 -10.32729 -10.32729 -10.31547 -10.31547
 Alpha  occ. eigenvalues --  -10.31484 -10.31484 -10.30960 -10.30959 -10.30828
 Alpha  occ. eigenvalues --  -10.30828 -10.30584 -10.30584 -10.30560 -10.30560
 Alpha  occ. eigenvalues --  -10.30504 -10.30504 -10.30300 -10.30300 -10.29914
 Alpha  occ. eigenvalues --  -10.29914 -10.29215 -10.29215 -10.28924 -10.28924
 Alpha  occ. eigenvalues --   -1.15728  -1.15728  -1.11906  -1.11906  -1.08262
 Alpha  occ. eigenvalues --   -1.08192  -0.97808  -0.97796  -0.96434  -0.96433
 Alpha  occ. eigenvalues --   -0.91856  -0.91688  -0.88094  -0.88062  -0.87771
 Alpha  occ. eigenvalues --   -0.87445  -0.85473  -0.85468  -0.84401  -0.84343
 Alpha  occ. eigenvalues --   -0.84334  -0.84149  -0.79891  -0.79844  -0.75366
 Alpha  occ. eigenvalues --   -0.75352  -0.72913  -0.72802  -0.72172  -0.72059
 Alpha  occ. eigenvalues --   -0.69894  -0.69877  -0.68582  -0.68525  -0.65352
 Alpha  occ. eigenvalues --   -0.65203  -0.64003  -0.63763  -0.62067  -0.62001
 Alpha  occ. eigenvalues --   -0.60514  -0.60500  -0.59374  -0.59341  -0.58486
 Alpha  occ. eigenvalues --   -0.58456  -0.58236  -0.57678  -0.56414  -0.56406
 Alpha  occ. eigenvalues --   -0.56004  -0.55866  -0.54854  -0.54854  -0.53351
 Alpha  occ. eigenvalues --   -0.53225  -0.53205  -0.53104  -0.52228  -0.52220
 Alpha  occ. eigenvalues --   -0.52081  -0.52072  -0.51701  -0.51683  -0.51443
 Alpha  occ. eigenvalues --   -0.51378  -0.50442  -0.50348  -0.48892  -0.48724
 Alpha  occ. eigenvalues --   -0.48671  -0.48437  -0.47969  -0.47928  -0.47509
 Alpha  occ. eigenvalues --   -0.47477  -0.47101  -0.46920  -0.46779  -0.46779
 Alpha  occ. eigenvalues --   -0.46105  -0.46101  -0.43475  -0.43395  -0.42929
 Alpha  occ. eigenvalues --   -0.42903  -0.42697  -0.42683  -0.42197  -0.41449
 Alpha  occ. eigenvalues --   -0.36423  -0.35910  -0.35770  -0.35028  -0.35026
 Alpha  occ. eigenvalues --   -0.34748  -0.34367  -0.34354  -0.30308  -0.30241
 Alpha  occ. eigenvalues --   -0.27952  -0.27046
 Alpha virt. eigenvalues --   -0.04086  -0.03695   0.02217   0.02288   0.02536
 Alpha virt. eigenvalues --    0.02824   0.03393   0.03799   0.03869   0.04062
 Alpha virt. eigenvalues --    0.04289   0.04798   0.04923   0.05230   0.05362

 Mulliken charges:
               1
     1  C   -0.332724
     2  C    0.058754
     3  H    0.188658
     4  C   -0.371572
     5  C   -0.532627
     6  N    0.165741
     7  C    0.519899
     8  H    0.222562
     9  C   -0.440482
    10  H    0.192160
    11  C   -0.374916
    12  C   -0.366671
    13  C    0.201684
    14  H    0.202253
    15  H    0.177693
    16  H    0.141183
    17  H    0.194656
    18  H    0.192789
    19  H    0.171222
    20  H    0.168233
    21  C   -0.094639
    22  H    0.286691
    23  C   -0.215971
    24  H   -0.179975
    25  C    1.674306
    26  O   -0.332278
    27  C    0.173514
    28  C   -1.130556
    29  H    0.410037
    30  C   -0.513995
    31  O   -0.340258
    32  C   -0.577709
    33  H    0.097800
    34  C   -0.312500
    35  H    0.240141
    36  H    0.225365
    37  H    0.211529
    38  C    0.173513
    39  C   -0.513991
    40  C    1.674307
    41  O   -0.340259
    42  C   -0.312491
    43  H    0.240141
    44  C   -1.130540
    45  C   -0.215967
    46  H    0.410037
    47  C   -0.577713
    48  H    0.211530
    49  H    0.097801
    50  C   -0.094654
    51  O   -0.332278
    52  H    0.225364
    53  C    0.201669
    54  H   -0.179975
    55  C    0.519894
    56  H    0.286691
    57  C   -0.371570
    58  C   -0.440481
    59  H    0.222561
    60  C   -0.332725
    61  C   -0.532620
    62  H    0.202254
    63  C    0.058752
    64  H    0.188658
    65  H    0.192160
    66  N    0.165744
    67  C   -0.366672
    68  C   -0.374913
    69  H    0.192789
    70  H    0.171222
    71  H    0.168233
    72  H    0.177692
    73  H    0.141183
    74  H    0.194657
 Sum of Mulliken charges =   0.00000

 Dipole moment (field-independent basis, Debye):
    X=              0.0000    Y=              0.0000    Z=              0.0000  Tot=              0.0000
 Quadrupole moment (field-independent basis, Debye-Ang):
   XX=           -258.2735   YY=           -225.3989   ZZ=           -306.7058
   XY=              9.5536   XZ=             67.0576   YZ=             16.1724

 Normal termination of Gaussian 09 at Tue Jan 30 01:15:02 2018.
