 Gaussian 09, Revision D.01,
 Gaussian 09:  ES64L-G09RevD.01 24-Apr-2013

 ----------------------------------------------------------------------
 #p wb97xd 6-31G* nosymm td=(nstates=2) density=(Transition=1) pop=Save
 NTO
 ----------------------------------------------------------------------

 -----
 Title
 -----
 Symbolic Z-matrix:
 Charge =  0 Multiplicity = 1

                          Input orientation:
 ---------------------------------------------------------------------
 Center     Atomic      Atomic             Coordinates (Angstroms)
 Number     Number       Type             X           Y           Z
 ---------------------------------------------------------------------
      1          6           0        2.581379   -2.105893   -1.790351
      2          6           0        1.469589   -2.925706   -2.114778
      3          6           0        2.418297   -1.172891   -0.739484
      4          7           0        3.760702   -2.220740   -2.463536
      5          6           0        0.275622   -2.797215   -1.441929
      6          1           0        1.543808   -3.659152   -2.906877
      7          6           0        1.213161   -1.068453   -0.076918
      8          1           0        3.239008   -0.532688   -0.440757
      9          6           0        3.889903   -3.191034   -3.531233
     10          6           0        4.884294   -1.370986   -2.116734
     11          6           0        0.103869   -1.867639   -0.400177
     12          1           0       -0.550023   -3.437858   -1.738482
     13          1           0        1.114370   -0.338494    0.721184
     14          1           0        3.768271   -4.218275   -3.164267
     15          1           0        4.878499   -3.104711   -3.978679
     16          1           0        3.151480   -3.019964   -4.322237
     17          1           0        4.641213   -0.309097   -2.246088
     18          1           0        5.725497   -1.605799   -2.769569
     19          1           0        5.206196   -1.527935   -1.081389
     20          6           0       -1.117404   -1.732539    0.361203
     21          6           0       -2.276353   -2.409923    0.182500
     22          1           0       -1.091198   -1.015275    1.182031
     23          6           0       -3.398076   -2.213310    1.090916
     24          1           0       -2.379263   -3.124101   -0.624627
     25          6           0       -4.700390   -2.871687    0.825503
     26          8           0       -3.265917   -1.494962    2.108429
     27          6           0       -5.765720   -2.700323    1.744545
     28          6           0       -4.941727   -3.655942   -0.318788
     29          1           0       -4.711652   -1.603647    2.830030
     30          6           0       -7.013689   -3.286127    1.498915
     31          8           0       -5.627792   -1.982401    2.870442
     32          6           0       -6.169035   -4.248695   -0.546866
     33          1           0       -4.157788   -3.806279   -1.050026
     34          6           0       -7.211084   -4.051961    0.365389
     35          1           0       -7.815385   -3.104576    2.205589
     36          1           0       -6.322494   -4.844558   -1.438454
     37          1           0       -8.188118   -4.487504    0.178763
 ---------------------------------------------------------------------

 SCF Done:  E(RwB97XD) =  -862.951263871     A.U. after   17 cycles

 Excitation energies and oscillator strengths:

 Excited state symmetry could not be determined.
 Excited State   1:      Singlet-?Sym    3.6487 eV  339.80 nm  f=1.1771  <S**2>=0.000
      66 -> 72         0.10197
      70 -> 72        -0.17318
      70 -> 73         0.11686
      71 -> 72         0.64495
 This state for optimization and/or second-order correction.
 Total Energy, E(TD-HF/TD-KS) =  -862.817175939
 Copying the excited state density for this state as the 1-particle RhoCI density.

 Excited state symmetry could not be determined.
 Excited State   2:      Singlet-?Sym    3.9001 eV  317.90 nm  f=0.0134  <S**2>=0.000
      68 -> 72         0.66159
      68 -> 73        -0.12263
      68 -> 76        -0.12564

 Alpha  occ. eigenvalues --    0.00000   0.00000   0.00000   0.00000   0.00000
 Alpha  occ. eigenvalues --    0.00000   0.00000   0.00000   0.00000   0.00000
 Alpha  occ. eigenvalues --    0.00000   0.00000   0.00000   0.00000   0.00000
 Alpha  occ. eigenvalues --    0.00000   0.00000   0.00000   0.00000   0.00000
 Alpha  occ. eigenvalues --    0.00000   0.00000   0.00000   0.00000   0.00000
 Alpha  occ. eigenvalues --    0.00000   0.00001   0.00001   0.00001   0.00001
 Alpha  occ. eigenvalues --    0.00001   0.00001   0.00002   0.00002   0.00002
 Alpha  occ. eigenvalues --    0.00003   0.00003   0.00003   0.00003   0.00003
 Alpha  occ. eigenvalues --    0.00004   0.00005   0.00006   0.00006   0.00006
 Alpha  occ. eigenvalues --    0.00008   0.00010   0.00011   0.00011   0.00013
 Alpha  occ. eigenvalues --    0.00014   0.00015   0.00016   0.00016   0.00017
 Alpha  occ. eigenvalues --    0.00017   0.00018   0.00022   0.00022   0.00032
 Alpha  occ. eigenvalues --    0.00036   0.00044   0.00053   0.00083   0.00089
 Alpha  occ. eigenvalues --    0.00116   0.00137   0.00166   0.00542   0.04937
 Alpha  occ. eigenvalues --    0.94312
 Alpha virt. eigenvalues --    0.94312   0.04937   0.00542   0.00166   0.00137
 Alpha virt. eigenvalues --    0.00116   0.00089   0.00083   0.00053   0.00044
 Alpha virt. eigenvalues --    0.00036   0.00032   0.00022   0.00022   0.00018

 Mulliken charges:
               1
     1  C    5.948922
     2  C    6.015381
     3  C    6.028186
     4  N    6.975672
     5  C    5.948170
     6  H    0.981953
     7  C    5.954024
     8  H    0.988829
     9  C    6.027839
    10  C    6.025561
    11  C    6.066757
    12  H    0.953505
    13  H    0.970038
    14  H    0.964245
    15  H    0.976903
    16  H    0.964924
    17  H    0.965341
    18  H    0.977789
    19  H    0.965429
    20  C    5.932815
    21  C    6.089821
    22  H    0.991020
    23  C    6.007244
    24  H    1.039025
    25  C    5.971513
    26  O    8.045598
    27  C    6.030737
    28  C    6.005382
    29  H    1.013142
    30  C    6.009336
    31  O    8.040882
    32  C    5.996258
    33  H    1.022644
    34  C    6.019928
    35  H    1.027810
    36  H    1.025756
    37  H    1.031622
 Sum of Mulliken charges = 142.00000

 Dipole moment (field-independent basis, Debye):
    X=            -12.1353    Y=             -1.0668    Z=              4.6629  Tot=             13.0440
 Quadrupole moment (field-independent basis, Debye-Ang):
   XX=             29.8874   YY=              5.1440   ZZ=             -4.2197
   XY=             33.6599   XZ=              1.3685   YZ=            -11.2667

 Normal termination of Gaussian 09 at Tue Sep 26 17:52:05 2017.
