 Gaussian 09, Revision D.01,
 Gaussian 09:  ES64L-G09RevD.01 24-Apr-2013

 ------------------------------------------
 #p wb97xd 6-311++G** td=(nstates=4) nosymm
 ------------------------------------------

 -----
 Title
 -----
 Symbolic Z-matrix:
 Charge =  0 Multiplicity = 1

                          Input orientation:
 ---------------------------------------------------------------------
 Center     Atomic      Atomic             Coordinates (Angstroms)
 Number     Number       Type             X           Y           Z
 ---------------------------------------------------------------------
      1          6           0       -7.196442   -6.840499    4.505462
      2          6           0       -8.449309   -7.422935    4.256097
      3          6           0       -6.116034   -7.043692    3.594826
      4          8           0       -7.039043   -6.086733    5.611203
      5          6           0       -8.641938   -8.219449    3.137063
      6          1           0       -9.257309   -7.215866    4.957770
      7          6           0       -6.353060   -7.866116    2.472996
      8          6           0       -4.824246   -6.380928    3.862622
      9          1           0       -6.047680   -5.756085    5.530263
     10          6           0       -7.588796   -8.450990    2.241936
     11          1           0       -9.619575   -8.665408    2.947296
     12          1           0       -5.552651   -8.063173    1.761606
     13          6           0       -3.704178   -6.554956    2.976342
     14          8           0       -4.726790   -5.640966    4.908668
     15          1           0       -7.737618   -9.088866    1.371175
     16          6           0       -2.521300   -5.888071    3.164452
     17          1           0       -3.810174   -7.242315    2.139497
     18          6           0       -1.320601   -6.014497    2.399224
     19          1           0       -2.478430   -5.193048    4.010013
     20          6           0       -1.146607   -6.949476    1.348586
     21          6           0       -0.202155   -5.210226    2.725294
     22          1           0       -1.971105   -7.602804    1.060473
     23          6           0        0.045604   -7.072357    0.673042
     24          6           0        0.997930   -5.310047    2.055673
     25          1           0       -0.299533   -4.492713    3.541330
     26          6           0        1.163557   -6.247449    0.999056
     27          1           0        0.121292   -7.809712   -0.121883
     28          1           0        1.826104   -4.673106    2.356233
     29          7           0        2.337452   -6.351839    0.324578
     30          6           0        2.482783   -7.333867   -0.738608
     31          6           0        3.451039   -5.467412    0.638287
     32          1           0        2.290163   -8.351594   -0.365237
     33          1           0        3.502452   -7.293717   -1.132587
     34          1           0        1.783202   -7.132620   -1.563458
     35          1           0        3.150286   -4.412434    0.549647
     36          1           0        4.268925   -5.658559   -0.063239
     37          1           0        3.818959   -5.636076    1.662178
 ---------------------------------------------------------------------

 SCF Done:  E(RwB97XD) =  -863.162546377     A.U. after   17 cycles

 Excitation energies and oscillator strengths:

 Excited state symmetry could not be determined.
 Excited State   1:      Singlet-?Sym    3.3460 eV  370.54 nm  f=1.2088  <S**2>=0.000
      70 -> 72         0.14014
      70 -> 74         0.12196
      71 -> 72         0.65943
 This state for optimization and/or second-order correction.
 Total Energy, E(TD-HF/TD-KS) =  -863.039582864
 Copying the excited state density for this state as the 1-particle RhoCI density.

 Excited state symmetry could not be determined.
 Excited State   2:      Singlet-?Sym    3.8087 eV  325.53 nm  f=0.0037  <S**2>=0.000
      68 -> 72         0.66398
      68 -> 74         0.14057

 Excited state symmetry could not be determined.
 Excited State   3:      Singlet-?Sym    3.8915 eV  318.60 nm  f=0.0265  <S**2>=0.000
      70 -> 72         0.63508
      70 -> 74         0.17788
      71 -> 72        -0.14311
      71 -> 74         0.13969

 Excited state symmetry could not be determined.
 Excited State   4:      Singlet-?Sym    4.4902 eV  276.12 nm  f=0.0442  <S**2>=0.000
      67 -> 72         0.27148
      67 -> 74        -0.12807
      70 -> 77        -0.11652
      71 -> 74         0.27180
      71 -> 77         0.53405

 Alpha  occ. eigenvalues --  -19.24247 -19.23379 -14.47978 -10.38265 -10.35619
 Alpha  occ. eigenvalues --  -10.35419 -10.33771 -10.33755 -10.31809 -10.30946
 Alpha  occ. eigenvalues --  -10.30835 -10.30162 -10.30142 -10.30073 -10.29842
 Alpha  occ. eigenvalues --  -10.29822 -10.29749 -10.29038 -10.28435 -10.28175
 Alpha  occ. eigenvalues --   -1.14935  -1.11100  -1.08217  -0.97225  -0.95647
 Alpha  occ. eigenvalues --   -0.91073  -0.87403  -0.87200  -0.84906  -0.84299
 Alpha  occ. eigenvalues --   -0.83581  -0.79489  -0.74739  -0.72270  -0.71546
 Alpha  occ. eigenvalues --   -0.69185  -0.67978  -0.64675  -0.63469  -0.61394
 Alpha  occ. eigenvalues --   -0.59780  -0.58993  -0.57923  -0.57831  -0.55778
 Alpha  occ. eigenvalues --   -0.55442  -0.54274  -0.52793  -0.52626  -0.51610
 Alpha  occ. eigenvalues --   -0.51517  -0.51252  -0.51038  -0.50312  -0.48741
 Alpha  occ. eigenvalues --   -0.48290  -0.47342  -0.46748  -0.46241  -0.46066
 Alpha  occ. eigenvalues --   -0.45352  -0.42853  -0.42172  -0.41915  -0.41401
 Alpha  occ. eigenvalues --   -0.35234  -0.35071  -0.34211  -0.33593  -0.29522
 Alpha  occ. eigenvalues --   -0.27103
 Alpha virt. eigenvalues --   -0.03030   0.02540   0.03205   0.03798   0.04301
 Alpha virt. eigenvalues --    0.04381   0.04877   0.05649   0.06177   0.06319
 Alpha virt. eigenvalues --    0.06806   0.06973   0.07800   0.07996   0.08059

 Mulliken charges:
               1
     1  C    0.192711
     2  C   -0.521048
     3  C    1.775133
     4  O   -0.350142
     5  C   -0.395807
     6  H    0.237433
     7  C   -1.273877
     8  C   -0.277375
     9  H    0.414620
    10  C   -0.438635
    11  H    0.207247
    12  H    0.118879
    13  C    0.203657
    14  O   -0.332426
    15  H    0.222595
    16  C    0.185760
    17  H   -0.170554
    18  C    0.807008
    19  H    0.248628
    20  C   -0.504693
    21  C   -0.278532
    22  H    0.169751
    23  C   -0.307540
    24  C   -0.320336
    25  H    0.213059
    26  C   -0.553221
    27  H    0.225451
    28  H    0.191238
    29  N    0.066506
    30  C   -0.391383
    31  C   -0.389945
    32  H    0.172613
    33  H    0.156371
    34  H    0.181420
    35  H    0.172965
    36  H    0.158667
    37  H    0.183805
 Sum of Mulliken charges =   0.00000

 Dipole moment (field-independent basis, Debye):
    X=              7.3881    Y=             -1.5036    Z=             -6.0777  Tot=              9.6842
 Quadrupole moment (field-independent basis, Debye-Ang):
   XX=           -129.9512   YY=            -97.6476   ZZ=           -153.1046
   XY=            -33.2395   XZ=             33.6481   YZ=             39.9197

 Normal termination of Gaussian 09 at Mon Jan 29 14:11:06 2018.
