 Gaussian 09, Revision D.01,
 Gaussian 09:  ES64L-G09RevD.01 24-Apr-2013

 ----------------------------------------------------------------------
 #p wb97xd 6-31++G** td=(nstates=1) nosymm Pop=NTO Density=(Transition=
 1)
 ----------------------------------------------------------------------

 -----
 Title
 -----
 Symbolic Z-matrix:
 Charge =  0 Multiplicity = 1

                          Input orientation:
 ---------------------------------------------------------------------
 Center     Atomic      Atomic             Coordinates (Angstroms)
 Number     Number       Type             X           Y           Z
 ---------------------------------------------------------------------
      1          6           0       -0.045604   -3.212643   -0.673042
      2          6           0       -1.163557   -4.037551   -0.999057
      3          1           0       -0.121291   -2.475288    0.121883
      4          6           0        1.146608   -3.335524   -1.348586
      5          6           0       -0.997931   -4.974953   -2.055672
      6          7           0       -2.337452   -3.933160   -0.324579
      7          6           0        1.320601   -4.270503   -2.399224
      8          1           0        1.971105   -2.682196   -1.060472
      9          6           0        0.202155   -5.074774   -2.725295
     10          1           0       -1.826104   -5.611893   -2.356233
     11          6           0       -3.451039   -4.817588   -0.638286
     12          6           0       -2.482782   -2.951131    0.738607
     13          6           0        2.521300   -4.396929   -3.164451
     14          1           0        0.299534   -5.792287   -3.541330
     15          1           0       -3.150286   -5.872565   -0.549647
     16          1           0       -4.268925   -4.626441    0.063239
     17          1           0       -3.818958   -4.648925   -1.662177
     18          1           0       -2.290162   -1.933406    0.365237
     19          1           0       -3.502453   -2.991283    1.132588
     20          1           0       -1.783201   -3.152381    1.563457
     21          6           0        3.704177   -3.730044   -2.976341
     22          1           0        2.478430   -5.091951   -4.010014
     23          6           0        4.824246   -3.904072   -3.862622
     24          1           0        3.810173   -3.042685   -2.139497
     25          6           0        6.116034   -3.241308   -3.594826
     26          8           0        4.726790   -4.644034   -4.908669
     27          6           0        7.196441   -3.444502   -4.505463
     28          6           0        6.353060   -2.418884   -2.472996
     29          1           0        6.047681   -4.528914   -5.530262
     30          6           0        8.449310   -2.862065   -4.256098
     31          8           0        7.039043   -4.198267   -5.611204
     32          6           0        7.588797   -1.834009   -2.241935
     33          1           0        5.552651   -2.221827   -1.761605
     34          6           0        8.641937   -2.065551   -3.137064
     35          1           0        9.257308   -3.069135   -4.957770
     36          1           0        7.737617   -1.196134   -1.371176
     37          1           0        9.619574   -1.619592   -2.947297
 ---------------------------------------------------------------------

 SCF Done:  E(RwB97XD) =  -862.999012473     A.U. after   17 cycles

 Excitation energies and oscillator strengths:

 Excited state symmetry could not be determined.
 Excited State   1:      Singlet-?Sym    3.3581 eV  369.21 nm  f=1.2148  <S**2>=0.000
      70 -> 72        -0.14042
      70 -> 74        -0.12080
      71 -> 72         0.65971
 This state for optimization and/or second-order correction.
 Total Energy, E(TD-HF/TD-KS) =  -862.875605657
 Copying the excited state density for this state as the 1-particle RhoCI density.

 Alpha  occ. eigenvalues --  -19.27244 -19.26495 -14.50307 -10.39782 -10.37073
 Alpha  occ. eigenvalues --  -10.36906 -10.35322 -10.35307 -10.33403 -10.32552
 Alpha  occ. eigenvalues --  -10.32451 -10.31757 -10.31709 -10.31697 -10.31475
 Alpha  occ. eigenvalues --  -10.31456 -10.31258 -10.30680 -10.30097 -10.29784
 Alpha  occ. eigenvalues --   -1.14940  -1.11126  -1.08145  -0.97149  -0.95562
 Alpha  occ. eigenvalues --   -0.91021  -0.87348  -0.87145  -0.84841  -0.84275
 Alpha  occ. eigenvalues --   -0.83517  -0.79423  -0.74671  -0.72194  -0.71457
 Alpha  occ. eigenvalues --   -0.69085  -0.67863  -0.64534  -0.63364  -0.61236
 Alpha  occ. eigenvalues --   -0.59652  -0.58855  -0.57798  -0.57666  -0.55658
 Alpha  occ. eigenvalues --   -0.55314  -0.54119  -0.52660  -0.52482  -0.51531
 Alpha  occ. eigenvalues --   -0.51362  -0.51133  -0.50878  -0.50177  -0.48670
 Alpha  occ. eigenvalues --   -0.48142  -0.47168  -0.46595  -0.46117  -0.45925
 Alpha  occ. eigenvalues --   -0.45194  -0.42701  -0.42023  -0.41745  -0.41265
 Alpha  occ. eigenvalues --   -0.35077  -0.34915  -0.34100  -0.33438  -0.29352
 Alpha  occ. eigenvalues --   -0.26928
 Alpha virt. eigenvalues --   -0.02838   0.02679   0.03444   0.04016   0.04498
 Alpha virt. eigenvalues --    0.04659   0.05092   0.05890   0.06336   0.06540
 Alpha virt. eigenvalues --    0.07081   0.07252   0.07827   0.08193   0.08367

 Mulliken charges:
               1
     1  C    6.010641
     2  C    5.883225
     3  H    0.990515
     4  C    5.934939
     5  C    6.016724
     6  N    6.980690
     7  C    6.142949
     8  H    0.955742
     9  C    5.917417
    10  H    0.992538
    11  C    5.996721
    12  C    6.000522
    13  C    5.883668
    14  H    0.974826
    15  H    0.972418
    16  H    0.984823
    17  H    0.971771
    18  H    0.972179
    19  H    0.984287
    20  H    0.972055
    21  C    6.138243
    22  H    0.997024
    23  C    6.056471
    24  H    1.019788
    25  C    6.019944
    26  O    8.059911
    27  C    6.050664
    28  C    5.940827
    29  H    1.006828
    30  C    5.981650
    31  O    8.060053
    32  C    6.013404
    33  H    1.016464
    34  C    6.035091
    35  H    1.020397
    36  H    1.021408
    37  H    1.023180
 Sum of Mulliken charges = 142.00000

 Dipole moment (field-independent basis, Debye):
    X=             12.8649    Y=              1.1997    Z=             -4.8825  Tot=             13.8125
 Quadrupole moment (field-independent basis, Debye-Ang):
   XX=             70.8163   YY=             -8.5957   ZZ=             23.3146
   XY=            -41.4009   XZ=            -42.1400   YZ=             14.9935

 Normal termination of Gaussian 09 at Thu Aug  9 19:43:12 2018.
