 Gaussian 09, Revision D.01,
 Gaussian 09:  ES64L-G09RevD.01 24-Apr-2013

 ----------------------------------------------------------------------
 #p wb97xd 6-31G* nosymm td=(nstates=2) density=(Transition=1) pop=Save
 NTO
 ----------------------------------------------------------------------

 -----
 Title
 -----
 Symbolic Z-matrix:
 Charge =  0 Multiplicity = 1

                          Input orientation:
 ---------------------------------------------------------------------
 Center     Atomic      Atomic             Coordinates (Angstroms)
 Number     Number       Type             X           Y           Z
 ---------------------------------------------------------------------
      1          6           0       -2.561045    2.954113    1.800653
      2          6           0       -1.453614    2.123705    2.119220
      3          6           0       -2.395118    3.884027    0.746328
      4          7           0       -3.735091    2.854836    2.478577
      5          6           0       -0.257335    2.254822    1.452784
      6          1           0       -1.535511    1.379261    2.899570
      7          6           0       -1.189555    3.988311    0.088085
      8          1           0       -3.219319    4.514257    0.441933
      9          6           0       -3.874215    1.876051    3.538120
     10          6           0       -4.839077    3.744247    2.165869
     11          6           0       -0.079646    3.191747    0.417146
     12          1           0        0.565679    1.610013    1.746085
     13          1           0       -1.090979    4.710509   -0.716946
     14          1           0       -3.760779    0.853886    3.155524
     15          1           0       -4.862027    1.966878    3.986117
     16          1           0       -3.134539    2.036154    4.330126
     17          1           0       -4.544216    4.794091    2.272894
     18          1           0       -5.657968    3.554154    2.859682
     19          1           0       -5.212008    3.588295    1.147805
     20          6           0        1.142009    3.334818   -0.334298
     21          6           0        2.304719    2.659570   -0.162136
     22          1           0        1.119006    4.060213   -1.147889
     23          6           0        3.424995    2.888199   -1.059609
     24          1           0        2.407243    1.928444    0.629659
     25          6           0        4.730578    2.228227   -0.807332
     26          8           0        3.297663    3.635176   -2.057585
     27          6           0        5.784111    2.394560   -1.739495
     28          6           0        4.979595    1.442845    0.332629
     29          1           0        4.727780    3.522407   -2.786250
     30          6           0        7.025290    1.784468   -1.519498
     31          8           0        5.638602    3.129431   -2.853437
     32          6           0        6.204812    0.838836    0.543916
     33          1           0        4.203990    1.302276    1.074422
     34          6           0        7.231178    1.015415   -0.388505
     35          1           0        7.813944    1.955377   -2.243553
     36          1           0        6.367472    0.249632    1.437610
     37          1           0        8.201859    0.560885   -0.214210
 ---------------------------------------------------------------------

 SCF Done:  E(RwB97XD) =  -862.951072593     A.U. after   17 cycles

 Excitation energies and oscillator strengths:

 Excited state symmetry could not be determined.
 Excited State   1:      Singlet-?Sym    3.6372 eV  340.88 nm  f=1.1953  <S**2>=0.000
      66 -> 72         0.10240
      70 -> 72        -0.16814
      70 -> 73         0.11829
      71 -> 72         0.64881
 This state for optimization and/or second-order correction.
 Total Energy, E(TD-HF/TD-KS) =  -862.817408463
 Copying the excited state density for this state as the 1-particle RhoCI density.

 Excited state symmetry could not be determined.
 Excited State   2:      Singlet-?Sym    3.9022 eV  317.73 nm  f=0.0069  <S**2>=0.000
      68 -> 72         0.66068
      68 -> 73        -0.12650
      68 -> 76        -0.12486

 Alpha  occ. eigenvalues --    0.00000   0.00000   0.00000   0.00000   0.00000
 Alpha  occ. eigenvalues --    0.00000   0.00000   0.00000   0.00000   0.00000
 Alpha  occ. eigenvalues --    0.00000   0.00000   0.00000   0.00000   0.00000
 Alpha  occ. eigenvalues --    0.00000   0.00000   0.00000   0.00000   0.00000
 Alpha  occ. eigenvalues --    0.00000   0.00000   0.00000   0.00000   0.00000
 Alpha  occ. eigenvalues --    0.00000   0.00001   0.00001   0.00001   0.00001
 Alpha  occ. eigenvalues --    0.00001   0.00001   0.00002   0.00002   0.00002
 Alpha  occ. eigenvalues --    0.00003   0.00003   0.00003   0.00003   0.00003
 Alpha  occ. eigenvalues --    0.00004   0.00005   0.00006   0.00006   0.00006
 Alpha  occ. eigenvalues --    0.00008   0.00010   0.00011   0.00011   0.00013
 Alpha  occ. eigenvalues --    0.00014   0.00015   0.00016   0.00016   0.00017
 Alpha  occ. eigenvalues --    0.00017   0.00018   0.00022   0.00023   0.00032
 Alpha  occ. eigenvalues --    0.00037   0.00046   0.00055   0.00085   0.00088
 Alpha  occ. eigenvalues --    0.00112   0.00137   0.00162   0.00532   0.04904
 Alpha  occ. eigenvalues --    0.94370
 Alpha virt. eigenvalues --    0.94370   0.04904   0.00532   0.00162   0.00137
 Alpha virt. eigenvalues --    0.00112   0.00088   0.00085   0.00055   0.00046
 Alpha virt. eigenvalues --    0.00037   0.00032   0.00023   0.00022   0.00018

 Mulliken charges:
               1
     1  C    5.948641
     2  C    6.015189
     3  C    6.028130
     4  N    6.975368
     5  C    5.948019
     6  H    0.981638
     7  C    5.953815
     8  H    0.988652
     9  C    6.027911
    10  C    6.025662
    11  C    6.066549
    12  H    0.953092
    13  H    0.969664
    14  H    0.964461
    15  H    0.976654
    16  H    0.964364
    17  H    0.965363
    18  H    0.977544
    19  H    0.965027
    20  C    5.933359
    21  C    6.089904
    22  H    0.991192
    23  C    6.007668
    24  H    1.039399
    25  C    5.971516
    26  O    8.046566
    27  C    6.030494
    28  C    6.005471
    29  H    1.013210
    30  C    6.009632
    31  O    8.041022
    32  C    5.996320
    33  H    1.022805
    34  C    6.019842
    35  H    1.028033
    36  H    1.026002
    37  H    1.031822
 Sum of Mulliken charges = 142.00000

 Dipole moment (field-independent basis, Debye):
    X=             12.2433    Y=             -1.0406    Z=             -4.7260  Tot=             13.1650
 Quadrupole moment (field-independent basis, Debye-Ang):
   XX=             30.5782   YY=             -5.5119   ZZ=             -4.4184
   XY=             28.2608   XZ=              1.3972   YZ=            -12.6111

 Normal termination of Gaussian 09 at Wed Jul  5 11:28:01 2017.
